! Sonnet Data File
! From: em Version : 16.56
! From Project: 300MHz_resonator_fullcapacitor_plus_inductorwithGP_variableILDparameters
! Data is from a network 
! Data File Written: 03/28/2020 00:44:00
!< HDATE 03/06/2020 17:38:15
!< MDATE 03/27/2020 23:02:33
!< PARAMS
!< ILD_thickness = 0.3
!< ILD_dielectric_constant = 3.9
!< END PARAMS
# MHZ S RI R 50.00000
329.5000000000000 -5.777128875e-3 -0.045218012060 0.9939704518512 -0.099707240322 0.9939704518514 -0.099707240322 -3.322583300e-3 -0.045464542158
329.5050000000000 -5.801518493e-3 -0.045315660524 0.9939557936784 -0.099807315138 0.9939557936784 -0.099807315138 -3.327342565e-3 -0.045564417422
329.5100000000000 -5.826320814e-3 -0.045414871187 0.9939408804024 -0.099908980058 0.9939408804024 -0.099908980058 -3.332197927e-3 -0.045665895091
329.5150000000000 -5.851545854e-3 -0.045515681804 0.9939257057137 -0.100012273572 0.9939257057137 -0.100012273572 -3.337151883e-3 -0.045769013788
329.5200000000000 -5.877204518e-3 -0.045618131584 0.9939102626629 -0.100117235646 0.9939102626629 -0.100117235646 -3.342207382e-3 -0.045873813837
329.5250000000000 -5.903308092e-3 -0.045722261027 0.9938945440537 -0.100223907562 0.9938945440537 -0.100223907562 -3.347367489e-3 -0.045980336892
329.5300000000000 -5.929868254e-3 -0.045828111979 0.9938785424315 -0.100332331974 0.9938785424315 -0.100332331974 -3.352635389e-3 -0.046088625994
329.5350000000000 -5.956897094e-3 -0.045935727686 0.9938622500720 -0.100442552969 0.9938622500720 -0.100442552969 -3.358014394e-3 -0.046198725631
329.5400000000000 -5.984407132e-3 -0.046045152856 0.9938456589690 -0.100554616124 0.9938456589690 -0.100554616124 -3.363507947e-3 -0.046310681797
329.5450000000000 -6.012411335e-3 -0.046156433719 0.9938287608215 -0.100668568569 0.9938287608215 -0.100668568569 -3.369119633e-3 -0.046424542056
329.5500000000000 -6.040923141e-3 -0.046269618094 0.9938115470199 -0.100784459057 0.9938115470199 -0.100784459057 -3.374853180e-3 -0.046540355611
329.5550000000000 -6.069956477e-3 -0.046384755455 0.9937940086317 -0.100902338033 0.9937940086317 -0.100902338033 -3.380712470e-3 -0.046658173374
329.5600000000000 -6.099525784e-3 -0.046501897006 0.9937761363866 -0.101022257706 0.9937761363866 -0.101022257706 -3.386701548e-3 -0.046778048043
329.5650000000000 -6.129646039e-3 -0.046621095756 0.9937579206597 -0.101144272129 0.9937579206597 -0.101144272129 -3.392824627e-3 -0.046900034178
329.5700000000000 -6.160332781e-3 -0.046742406602 0.9937393514555 -0.101268437281 0.9937393514555 -0.101268437281 -3.399086097e-3 -0.047024188287
329.5750000000000 -6.191602137e-3 -0.046865886408 0.9937204183890 -0.101394811154 0.9937204183890 -0.101394811154 -3.405490537e-3 -0.047150568910
329.5800000000000 -6.223470850e-3 -0.046991594099 0.9937011106674 -0.101523453841 0.9937011106674 -0.101523453841 -3.412042723e-3 -0.047279236714
329.5850000000000 -6.255956309e-3 -0.047119590753 0.9936814170697 -0.101654427638 0.9936814170697 -0.101654427638 -3.418747638e-3 -0.047410254591
329.5900000000000 -6.289076582e-3 -0.047249939701 0.9936613259252 -0.101787797138 0.9936613259252 -0.101787797138 -3.425610485e-3 -0.047543687759
329.5950000000000 -6.322850444e-3 -0.047382706631 0.9936408250913 -0.101923629344 0.9936408250913 -0.101923629344 -3.432636696e-3 -0.047679603871
329.6000000000000 -6.357297420e-3 -0.047517959699 0.9936199019292 -0.102061993783 0.9936199019292 -0.102061993783 -3.439831947e-3 -0.047818073129
329.6050000000000 -6.392437814e-3 -0.047655769648 0.9935985432786 -0.102202962619 0.9935985432786 -0.102202962619 -3.447202170e-3 -0.047959168407
329.6100000000000 -6.428292755e-3 -0.047796209928 0.9935767354307 -0.102346610787 0.9935767354307 -0.102346610787 -3.454753571e-3 -0.048102965380
329.6150000000000 -6.464884236e-3 -0.047939356829 0.9935544640993 -0.102493016123 0.9935544640993 -0.102493016123 -3.462492638e-3 -0.048249542653
329.6200000000000 -6.502235158e-3 -0.048085289619 0.9935317143907 -0.102642259506 0.9935317143907 -0.102642259506 -3.470426165e-3 -0.048398981916
329.6250000000000 -6.540369381e-3 -0.048234090693 0.9935084707709 -0.102794425009 0.9935084707709 -0.102794425009 -3.478561263e-3 -0.048551368086
329.6300000000000 -6.579311768e-3 -0.048385845725 0.9934847170311 -0.102949600059 0.9934847170311 -0.102949600059 -3.486905383e-3 -0.048706789472
329.6350000000000 -6.619088244e-3 -0.048540643833 0.9934604362510 -0.103107875603 0.9934604362510 -0.103107875603 -3.495466334e-3 -0.048865337947
329.6400000000000 -6.659725851e-3 -0.048698577759 0.9934356107596 -0.103269346290 0.9934356107596 -0.103269346290 -3.504252305e-3 -0.049027109131
329.6450000000000 -6.701252810e-3 -0.048859744048 0.9934102220933 -0.103434110661 0.9934102220933 -0.103434110661 -3.513271886e-3 -0.049192202576
329.6500000000000 -6.743698581e-3 -0.049024243249 0.9933842509513 -0.103602271348 0.9933842509513 -0.103602271348 -3.522534094e-3 -0.049360721982
329.6550000000000 -6.787093939e-3 -0.049192180124 0.9933576771480 -0.103773935291 0.9933576771480 -0.103773935291 -3.532048399e-3 -0.049532775404
329.6600000000000 -6.831471041e-3 -0.049363663870 0.9933304795618 -0.103949213969 0.9933304795618 -0.103949213969 -3.541824752e-3 -0.049708475492
329.6650000000000 -6.876863509e-3 -0.049538808358 0.9933026360811 -0.104128223635 0.9933026360811 -0.104128223635 -3.551873614e-3 -0.049887939729
329.6700000000000 -6.923306510e-3 -0.049717732383 0.9932741235456 -0.104311085583 0.9932741235456 -0.104311085583 -3.562205988e-3 -0.050071290704
329.6750000000000 -6.970836850e-3 -0.049900559937 0.9932449176839 -0.104497926421 0.9932449176839 -0.104497926421 -3.572833457e-3 -0.050258656380
329.6800000000000 -7.019493067e-3 -0.050087420490 0.9932149930469 -0.104688878362 0.9932149930469 -0.104688878362 -3.583768218e-3 -0.050450170401
329.6850000000000 -7.069315536e-3 -0.050278449302 0.9931843229356 -0.104884079544 0.9931843229356 -0.104884079544 -3.595023121e-3 -0.050645972407
329.6900000000000 -7.120346575e-3 -0.050473787749 0.9931528793243 -0.105083674357 0.9931528793243 -0.105083674357 -3.606611719e-3 -0.050846208374
329.6950000000000 -7.172630570e-3 -0.050673583668 0.9931206327775 -0.105287813811 0.9931206327775 -0.105287813811 -3.618548307e-3 -0.051051030978
329.7000000000000 -7.226214096e-3 -0.050877991735 0.9930875523613 -0.105496655910 0.9930875523613 -0.105496655910 -3.630847978e-3 -0.051260599982
329.7050000000000 -7.281146055e-3 -0.051087173863 0.9930536055471 -0.105710366067 0.9930536055471 -0.105710366067 -3.643526674e-3 -0.051475082657
329.7100000000000 -7.337477825e-3 -0.051301299633 0.9930187581087 -0.105929117543 0.9930187581087 -0.105929117543 -3.656601247e-3 -0.051694654220
329.7150000000000 -7.395263415e-3 -0.051520546746 0.9929829740108 -0.106153091915 0.9929829740108 -0.106153091915 -3.670089525e-3 -0.051919498318
329.7200000000000 -7.454559637e-3 -0.051745101523 0.9929462152890 -0.106382479583 0.9929462152890 -0.106382479583 -3.684010376e-3 -0.052149807540
329.7250000000000 -7.515426288e-3 -0.051975159430 0.9929084419198 -0.106617480313 0.9929084419198 -0.106617480313 -3.698383787e-3 -0.052385783964
329.7300000000000 -7.577926348e-3 -0.052210925644 0.9928696116809 -0.106858303817 0.9928696116809 -0.106858303817 -3.713230945e-3 -0.052627639753
329.7350000000000 -7.642126195e-3 -0.052452615667 0.9928296799985 -0.107105170383 0.9928296799985 -0.107105170383 -3.728574325e-3 -0.052875597789
329.7400000000000 -7.708095837e-3 -0.052700455981 0.9927885997837 -0.107358311545 0.9927885997837 -0.107358311545 -3.744437789e-3 -0.053129892357
329.7450000000000 -7.775909157e-3 -0.052954684759 0.9927463212535 -0.107617970817 0.9927463212535 -0.107617970817 -3.760846686e-3 -0.053390769890
329.7500000000000 -7.845644193e-3 -0.053215552623 0.9927027917375 -0.107884404469 0.9927027917375 -0.107884404469 -3.777827974e-3 -0.053658489757
329.7550000000000 -7.917383422e-3 -0.053483323474 0.9926579554670 -0.108157882380 0.9926579554670 -0.108157882380 -3.795410337e-3 -0.053933325131
329.7600000000000 -7.991214090e-3 -0.053758275381 0.9926117533466 -0.108438688950 0.9926117533466 -0.108438688950 -3.813624330e-3 -0.054215563915
329.7650000000000 -8.067228550e-3 -0.054040701541 0.9925641227041 -0.108727124089 0.9925641227041 -0.108727124089 -3.832502523e-3 -0.054505509747
329.7700000000000 -8.145524646e-3 -0.054330911324 0.9925149970187 -0.109023504289 0.9925149970187 -0.109023504289 -3.852079667e-3 -0.054803483093
329.7750000000000 -8.226206123e-3 -0.054629231407 0.9924643056241 -0.109328163787 0.9924643056241 -0.109328163787 -3.872392875e-3 -0.055109822427
329.7800000000000 -8.309383076e-3 -0.054936006991 0.9924119733832 -0.109641455823 0.9924119733832 -0.109641455823 -3.893481819e-3 -0.055424885510
329.7850000000000 -8.395172442e-3 -0.055251603141 0.9923579203329 -0.109963754012 0.9923579203329 -0.109963754012 -3.915388947e-3 -0.055749050788
329.7900000000000 -8.483698538e-3 -0.055576406232 0.9923020612945 -0.110295453830 0.9923020612945 -0.110295453830 -3.938159723e-3 -0.056082718906
329.7950000000000 -8.575093645e-3 -0.055910825524 0.9922443054452 -0.110636974239 0.9922443054452 -0.110636974239 -3.961842892e-3 -0.056426314359
329.8000000000000 -8.669498657e-3 -0.056255294882 0.9921845558485 -0.110988759455 0.9921845558485 -0.110988759455 -3.986490772e-3 -0.056780287289
329.8050000000000 -8.767063790e-3 -0.056610274654 0.9921227089363 -0.111351280879 0.9921227089363 -0.111351280879 -4.012159576e-3 -0.057145115458
329.8100000000000 -8.867949357e-3 -0.056976253718 0.9920586539383 -0.111725039204 0.9920586539383 -0.111725039204 -4.038909768e-3 -0.057521306391
329.8150000000000 -8.972326633e-3 -0.057353751729 0.9919922722519 -0.112110566729 0.9919922722519 -0.112110566729 -4.066806465e-3 -0.057909399731
329.8200000000000 -9.080378794e-3 -0.057743321572 0.9919234367455 -0.112508429890 0.9919234367455 -0.112508429890 -4.095919875e-3 -0.058309969823
329.8250000000000 -9.192301971e-3 -0.058145552069 0.9918520109870 -0.112919232038 0.9918520109870 -0.112919232038 -4.126325786e-3 -0.058723628539
329.8300000000000 -9.308306403e-3 -0.058561070935 0.9917778483871 -0.113343616493 0.9917778483871 -0.113343616493 -4.158106119e-3 -0.059151028397
329.8350000000000 -9.428617722e-3 -0.058990548045 0.9917007912483 -0.113782269910 0.9917007912483 -0.113782269910 -4.191349536e-3 -0.059592865993
329.8400000000000 -9.553478384e-3 -0.059434699031 0.9916206697051 -0.114235925985 0.9916206697051 -0.114235925985 -4.226152127e-3 -0.060049885776
329.8450000000000 -9.683149247e-3 -0.059894289252 0.9915373005415 -0.114705369549 0.9915373005415 -0.114705369549 -4.262618177e-3 -0.060522884231
329.8500000000000 -9.817911348e-3 -0.060370138186 0.9914504858715 -0.115191441103 0.9914504858715 -0.115191441103 -4.300861031e-3 -0.061012714503
329.8550000000000 -9.958067871e-3 -0.060863124298 0.9913600116583 -0.115695041832 0.9913600116583 -0.115695041832 -4.341004063e-3 -0.061520291521
329.8600000000000 -0.010103946364 -0.061374190432 0.9912656460555 -0.116217139182 0.9912656460555 -0.116217139182 -4.383181775e-3 -0.062046597686
329.8650000000000 -0.010255901216 -0.061904349820 0.9911671375397 -0.116758773056 0.9911671375397 -0.116758773056 -4.427541036e-3 -0.062592689207
329.8700000000000 -0.010414316440 -0.062454692764 0.9910642128076 -0.117321062720 0.9910642128076 -0.117321062720 -4.474242488e-3 -0.063159703155
329.8750000000000 -0.010579608816 -0.063026394099 0.9909565743987 -0.117905214516 0.9909565743987 -0.117905214516 -4.523462139e-3 -0.063748865346
329.8800000000000 -0.010752231431 -0.063620721539 0.9908438980053 -0.118512530482 0.9908438980053 -0.118512530482 -4.575393185e-3 -0.064361499160
329.8850000000000 -0.010932677690 -0.064239045025 0.9907258294174 -0.119144418030 0.9907258294174 -0.119144418030 -4.630248084e-3 -0.064999035436
329.8900000000000 -0.011121485864 -0.064882847234 0.9906019810479 -0.119802400807 0.9906019810479 -0.119802400807 -4.688260930e-3 -0.065663023593
329.8950000000000 -0.011319244267 -0.065553735397 0.9904719279652 -0.120488130934 0.9904719279652 -0.120488130934 -4.749690179e-3 -0.066355144156
329.9000000000000 -0.011526597158 -0.066253454645 0.9903352033566 -0.121203402825 0.9903352033566 -0.121203402825 -4.814821790e-3 -0.067077222908
329.9050000000000 -0.011744251492 -0.066983903101 0.9901912933191 -0.121950168816 0.9901912933191 -0.121950168816 -4.883972843e-3 -0.067831246911
329.9100000000000 -0.011972984667 -0.067747148992 0.9900396308661 -0.122730556906 0.9900396308661 -0.122730556906 -4.957495739e-3 -0.068619382687
329.9150000000000 -0.012213653437 -0.068545450113 0.9898795890056 -0.123546890941 0.9898795890056 -0.123546890941 -5.035783071e-3 -0.069443996925
329.9200000000000 -0.012467204208 -0.069381276016 0.9897104727224 -0.124401713635 0.9897104727224 -0.124401713635 -5.119273303e-3 -0.070307680099
329.9250000000000 -0.012734684953 -0.070257333387 0.9895315096570 -0.125297812917 0.9895315096570 -0.125297812917 -5.208457421e-3 -0.071213273525
329.9300000000000 -0.013017259079 -0.071176595158 0.9893418392315 -0.126238252170 0.9893418392315 -0.126238252170 -5.303886729e-3 -0.072163900421
329.9350000000000 -0.013316221592 -0.072142333998 0.9891404999146 -0.127226405046 0.9891404999146 -0.127226405046 -5.406182048e-3 -0.073163001694
329.9400000000000 -0.013633018046 -0.073158160988 0.9889264142488 -0.128265995692 0.9889264142488 -0.128265995692 -5.516044598e-3 -0.074214377317
329.9450000000000 -0.013969266820 -0.074228070424 0.9886983711728 -0.129361145386 0.9886983711728 -0.129361145386 -5.634268926e-3 -0.075322234324
329.9500000000000 -0.014326785436 -0.075356491914 0.9884550050591 -0.130516426802 0.9884550050591 -0.130516426802 -5.761758350e-3 -0.076491242700
329.9550000000000 -0.014707621788 -0.076548351191 0.9881947707413 -0.131736927406 0.9881947707413 -0.131736927406 -5.899543465e-3 -0.077726600724
329.9600000000000 -0.015114091372 -0.077809141382 0.9879159136188 -0.133028323819 0.9879159136188 -0.133028323819 -6.048804464e-3 -0.079034111670
329.9650000000000 -0.015548821899 -0.079145006892 0.9876164336858 -0.134396969411 0.9876164336858 -0.134396969411 -6.210898167e-3 -0.080420274234
329.9700000000000 -0.016014807038 -0.080562842571 0.9872940420126 -0.135849997962 0.9872940420126 -0.135849997962 -6.387390960e-3 -0.081892389643
329.9750000000000 -0.016515471519 -0.082070411509 0.9869461077935 -0.137395446913 0.9869461077935 -0.137395446913 -6.580099153e-3 -0.083458689118
329.9800000000000 -0.017054750484 -0.083676485655 0.9865695935242 -0.139042404670 0.9865695935242 -0.139042404670 -6.791138739e-3 -0.085128486366
329.9850000000000 -0.017637186797 -0.085391014568 0.9861609751293 -0.140801187562 0.9861609751293 -0.140801187562 -7.022987154e-3 -0.086912360978
329.9900000000000 -0.018268051219 -0.087225329057 0.9857161428698 -0.142683553686 0.9857161428698 -0.142683553686 -7.278560462e-3 -0.088822380294
329.9950000000000 -0.018953491861 -0.089192388405 0.9852302774981 -0.144702962839 0.9852302774981 -0.144702962839 -7.561310541e-3 -0.090872369425
330.0000000000000 -0.019700732353 -0.091307083804 0.9846976837573 -0.146874896993 0.9846976837582 -0.146874896993 -7.875358559e-3 -0.093078245733
330.0050000000000 -0.038135852896 -0.136075299581 0.9708280796105 -0.193096034011 0.9708280796105 -0.193096034011 -0.017073472715 -0.140288532966
330.0100000000000 -0.042018227663 -0.144144598851 0.9677732933352 -0.201483101835 0.9677732933352 -0.201483101835 -0.019276087996 -0.148907484222
330.0150000000000 -0.046776879411 -0.153557564726 0.9639819332287 -0.211289279499 0.9639819332287 -0.211289279499 -0.022069275125 -0.159006591465
330.0200000000000 -0.052723742002 -0.164669844987 0.9591796970215 -0.222898074118 0.9591796970215 -0.222898074118 -0.025687264609 -0.170993281387
330.0250000000000 -0.060329226669 -0.177968749965 0.9529480881733 -0.236839210215 0.9529480881733 -0.236839210215 -0.030492879306 -0.185434225054
330.0300000000000 -0.070331487278 -0.194135314677 0.9446221659831 -0.253860961867 0.9446221659831 -0.253860961867 -0.037071813312 -0.203137164072
330.0350000000000 -0.083945016599 -0.214138783699 0.9330929752515 -0.275044440121 0.9330929752515 -0.275044440121 -0.046417313283 -0.225283751013
330.0400000000000 -0.103285407447 -0.239373173314 0.9163997295707 -0.301980935460 0.9163997295707 -0.301980935460 -0.060317166841 -0.253645667272
330.0450000000000 -0.132301681008 -0.271811188073 0.8908202908394 -0.337016537799 0.8908202908394 -0.337016537799 -0.082231655040 -0.290916954904
330.0500000000000 -0.179001241750 -0.313927420743 0.8486568378562 -0.383395428258 0.8486568378562 -0.383395428258 -0.119475637875 -0.341074552118
330.0550000000000 -0.261180223347 -0.366826386334 0.7723677456148 -0.443968450912 0.7723677456148 -0.443968450912 -0.189166060162 -0.408676244017
330.0600000000000 -0.420797729067 -0.416929718142 0.6189977783808 -0.509407036891 0.6189977783808 -0.509407036891 -0.334826953530 -0.488706754499
330.0650000000000 -0.731279990548 -0.357558178829 0.3051987325857 -0.481147092775 0.3051987325857 -0.481147092775 -0.648846881151 -0.491629433773
330.0700000000000 -0.980558679578 0.1357448716442 0.0093007968876 -0.016467992308 0.0093007968876 -0.016467992308 -0.988159346255 -0.059936898866
330.0750000000000 -0.588748774335 0.5614586004732 0.3559145470557 0.4444099052107 0.3559145470557 0.4444099052107 -0.689840564613 0.4313611713390
330.0800000000000 -0.246114180054 0.5092017582957 0.7009009601982 0.4263762366767 0.7009009601982 0.4263762366767 -0.345897244149 0.4475043831958
330.0850000000000 -0.105955321929 0.3930299363681 0.8513721772756 0.3249787075469 0.8513721772756 0.3249787075469 -0.186655306374 0.3617791409755
330.0900000000000 -0.047787958396 0.3059189020984 0.9176560645639 0.2443168420492 0.9176560645639 0.2443168420492 -0.112957404769 0.2883159418412
330.0950000000000 -0.020879682191 0.2450125369972 0.9503517870721 0.1865619930528 0.9503517870721 0.1865619930528 -0.074832423158 0.2342593455055
330.1000000000000 -7.255073137e-3 0.2014211342172 0.9681645933524 0.1446702141631 0.9681645933524 0.1446702141631 -0.053033315105 0.1944680570905
330.1050000000000 9.2499337715e-5 0.1691055663325 0.9786394872231 0.1133428900115 0.9786394872231 0.1133428900115 -0.039554149274 0.1644310200250
330.1100000000000 0.0042123387726 0.1443539633124 0.9851669596593 0.0891992867541 0.9851669596593 0.0891992867541 -0.030698700367 0.1411295819693
330.1150000000000 0.0065609806849 0.1248601613030 0.9894191064261 0.0700957724396 0.9894191064261 0.0700957724396 -0.024597107247 0.1226025757468
330.1200000000000 0.0078882825712 0.1091444522186 0.9922856060891 0.0546387061041 0.9922856060891 0.0546387061041 -0.020229503369 0.1075555151143
330.1250000000000 0.0086041816996 0.0962238551070 0.9942700014939 0.0418935821434 0.9942700014939 0.0418935821434 -0.017004287428 0.0951112063203
330.1300000000000 0.0089439011326 0.0854238798434 0.9956721216272 0.0312146291561 0.9956721216272 0.0312146291561 -0.014560385693 0.0846587343408
330.1350000000000 0.0090478165712 0.0762681315265 0.9966781843246 0.0221431951662 0.9966781843246 0.0221431951662 -0.012667863271 0.0757615667447
330.1400000000000 0.0090024188659 0.0684114419545 0.9974080194656 0.0143454664790 0.9974080194656 0.0143454664790 -0.011174943926 0.0681004399442
330.1450000000000 0.0088623963852 0.0615980524104 0.9979410954596 0.0075731706536 0.9979410954596 0.0075731706536 -9.978320320e-3 0.0614369507786
330.1500000000000 0.0086630541964 0.0556346731073 0.9983314941901 0.0016380813017 0.9983314941901 0.0016380813017 -9.005786779e-3 0.0555897469374
330.1550000000000 0.0084275566032 0.0503726500047 0.9986168533295 -3.604954846e-3 0.9986168533295 -3.604954846e-3 -8.205695950e-3 0.0504185749023
330.1600000000000 0.0081712850476 0.0456958675312 0.9988238818403 -8.269586418e-3 0.9988238818403 -8.269586418e-3 -7.540347338e-3 0.0458133501276
330.1650000000000 0.0079045324713 0.0415123590800 0.9989718598155 -0.012446012518 0.9989718598155 -0.012446012518 -6.981721549e-3 0.0416865130242
330.1700000000000 0.0076342090657 0.0377483717677 0.9990749157136 -0.016206701169 0.9990749157136 -0.016206701169 -6.508657634e-3 0.0379675819087
330.1750000000000 0.0073649447415 0.0343440911462 0.9991435415138 -0.019610520890 0.9991435415138 -0.019610520890 -6.104942798e-3 0.0345992046754
330.1800000000000 0.0070998147238 0.0312505108847 0.9991856211417 -0.022705773835 0.9991856211417 -0.022705773835 -5.757993205e-3 0.0315342519029
330.1850000000000 0.0068408247573 0.0284271064543 0.9992071411682 -0.025532455225 0.9992071411682 -0.025532455225 -5.457926228e-3 0.0287336460088
330.1900000000000 0.0065892400948 0.0258400826968 0.9992126899617 -0.028123958991 0.9992126899617 -0.028123958991 -5.196897141e-3 0.0261647187890
330.1950000000000 0.0063458112725 0.0234610372014 0.9992058134578 -0.030508381197 0.9992058134578 -0.030508381197 -4.968617691e-3 0.0237999537507
330.2000000000000 0.0061109306654 0.0212659291195 0.9991892721476 -0.032709527349 0.9991892721476 -0.032709527350 -4.768001853e-3 0.0216160123915
330.2050000000000 0.0058847420072 0.0192342752178 0.9991652290008 -0.034747698962 0.9991652290008 -0.034747698962 -4.590901863e-3 0.0195929726012
330.2100000000000 0.0056672175535 0.0173485169689 0.9991353884266 -0.036640313681 0.9991353884266 -0.036640313681 -4.433909222e-3 0.0177137273195
330.2150000000000 0.0054582127620 0.0155935177882 0.9991011000973 -0.038402398539 0.9991011000973 -0.038402398539 -4.294203071e-3 0.0159635055536
330.2200000000000 0.0052575051942 0.0139561602998 0.9990634372571 -0.040046985559 0.9990634372571 -0.040046985559 -4.169433500e-3 0.0143294877362
330.2250000000000 0.0050648222541 0.0124250212088 0.9990232563032 -0.041585431490 0.9990232563032 -0.041585431490 -4.057630917e-3 0.0128004944847
330.2300000000000 0.0048798609754 0.0109901069102 0.9989812424898 -0.043027678078 0.9989812424898 -0.043027678078 -3.957135046e-3 0.0113667329617
330.2350000000000 0.0047023021045 0.0096426370226 0.9989379452483 -0.044382465375 0.9989379452483 -0.044382465375 -3.866538853e-3 0.0100195887973
330.2400000000000 0.0045318200757 0.0083748660260 0.9988938056735 -0.045657507662 0.9988938056735 -0.045657507662 -3.784643935e-3 0.0087514543191
330.2450000000000 0.0043680900134 0.0071799354156 0.9988491780516 -0.046859639388 0.9988491780516 -0.046859639388 -3.710424772e-3 0.0075555859241
330.2500000000000 0.0042107925796 0.0060517504581 0.9988043468251 -0.047994936935 0.9988043468251 -0.047994936935 -3.642999891e-3 0.0064259849896
330.2550000000000 0.0040596172533 0.0049848769105 0.9987595400322 -0.049068820726 0.9987595400322 -0.049068820726 -3.581608462e-3 0.0053572979219
330.2600000000000 0.0039142644733 0.0039744540338 0.9987149400122 -0.050086141289 0.9987149400122 -0.050086141289 -3.525591193e-3 0.0043447318519
330.2650000000000 0.0037744469548 0.0030161209821 0.9986706919725 -0.051051252137 0.9986706919725 -0.051051252137 -3.474374647e-3 0.0033839831983
330.2700000000000 0.0036398904104 0.0021059542323 0.9986269108749 -0.051968071758 0.9986269108749 -0.051968071758 -3.427458292e-3 0.0024711768657
330.2750000000000 0.0035103338429 0.0012404141705 0.9985836869954 -0.052840136557 0.9985836869954 -0.052840136557 -3.384403770e-3 0.0016028142783
330.2800000000000 0.0033855295332 4.1629931098e-4 0.9985410904271 -0.053670646267 0.9985410904271 -0.053670646267 -3.344825947e-3 7.7572878840e-4
330.2850000000000 0.0032652428170 -3.692930925e-4 0.9984991747441 -0.054462503038 0.9984991747441 -0.054462503038 -3.308385427e-3 -1.295273184e-5
330.2900000000000 0.0031492517135 -1.119001061e-3 0.9984579799888 -0.055218345211 0.9984579799888 -0.055218345211 -3.274782257e-3 -7.658430920e-4
330.2950000000000 0.0030373464595 -1.835227366e-3 0.9984175351168 -0.055940576593 0.9984175351168 -0.055940576593 -3.243750612e-3 -1.485323583e-3
330.3000000000000 0.0029293289840 -2.520165155e-3 0.9983778600034 -0.056631391931 0.9983778600034 -0.056631391931 -3.215054295e-3 -2.173569037e-3
330.3050000000000 0.0028250123480 -3.175820303e-3 0.9983389670927 -0.057292799131 0.9983389670927 -0.057292799131 -3.188482911e-3 -2.832569712e-3
330.3100000000000 0.0027242201713 -3.804030965e-3 0.9983008627582 -0.057926638712 0.9983008627582 -0.057926638712 -3.163848592e-3 -3.464150443e-3
330.3150000000000 0.0026267860590 -4.406484734e-3 0.9982635484254 -0.058534600874 0.9982635484254 -0.058534600874 -3.140983210e-3 -4.069987464e-3
330.3200000000000 0.0025325530368 -4.984733731e-3 0.9982270215013 -0.059118240529 0.9982270215013 -0.059118240529 -3.119735963e-3 -4.651623224e-3
330.3250000000000 0.0024413730030 -5.540207924e-3 0.9981912761438 -0.059678990556 0.9981912761438 -0.059678990556 -3.099971310e-3 -5.210479460e-3
330.3300000000000 0.0023531062011 -6.074226905e-3 0.9981563039004 -0.060218173537 0.9981563039004 -0.060218173537 -3.081567179e-3 -5.747868768e-3
330.3350000000000 0.0022676207155 -6.588010323e-3 0.9981220942378 -0.060737012159 0.9981220942378 -0.060737012159 -3.064413414e-3 -6.265004874e-3
330.3400000000000 0.0021847919927 -7.082687174e-3 0.9980886349819 -0.061236638467 0.9980886349819 -0.061236638467 -3.048410428e-3 -6.763011764e-3
330.3450000000000 0.0021045023875 -7.559304053e-3 0.9980559126836 -0.061718102103 0.9980559126836 -0.061718102103 -3.033468026e-3 -7.242931821e-3
330.3500000000000 0.0020266407362 -8.018832542e-3 0.9980239129225 -0.062182377663 0.9980239129225 -0.062182377663 -3.019504378e-3 -7.705733092e-3
330.3550000000000 0.0019511019536 -8.462175800e-3 0.9979926205582 -0.062630371287 0.9979926205582 -0.062630371287 -3.006445123e-3 -8.152315798e-3
330.3600000000000 0.0018777866559 -8.890174485e-3 0.9979620199400 -0.063062926557 0.9979620199400 -0.063062926557 -2.994222573e-3 -8.583518166e-3
330.3650000000000 0.0018066008069 -9.303612058e-3 0.9979320950795 -0.063480829804 0.9979320950795 -0.063480829804 -2.982775026e-3 -9.000121671e-3
330.3700000000000 0.0017374553864 -9.703219571e-3 0.9979028297937 -0.063884814880 0.9979028297937 -0.063884814880 -2.972046147e-3 -9.402855760e-3
330.3750000000000 0.0016702660809 -0.010089679971 0.9978742078225 -0.064275567461 0.9978742078225 -0.064275567461 -2.961984429e-3 -9.792402104e-3
330.3800000000000 0.0016049529938 -0.010463631989 0.9978462129259 -0.064653728937 0.9978462129259 -0.064653728937 -2.952542714e-3 -0.010169398448
330.3850000000000 0.0015414403751 -0.010825673663 0.9978188289623 -0.065019899925 0.9978188289623 -0.065019899925 -2.943677770e-3 -0.010534442089
330.3900000000000 0.0014796563692 -0.011176365525 0.9977920399529 -0.065374643458 0.9977920399529 -0.065374643458 -2.935349907e-3 -0.010888093031
330.3950000000000 0.0014195327790 -0.011516233493 0.9977658301340 -0.065718487882 0.9977658301340 -0.065718487882 -2.927522647e-3 -0.011230876852
330.4000000000000 0.0013610048457 -0.011845771502 0.9977401839967 -0.066051929478 0.9977401839967 -0.066051929478 -2.920162418e-3 -0.011563287306
330.4050000000000 0.0013040110439 -0.012165443899 0.9977150863208 -0.066375434863 0.9977150863208 -0.066375434863 -2.913238292e-3 -0.011885788692
330.4100000000000 0.0012484928899 -0.012475687622 0.9976905221995 -0.066689443171 0.9976905221995 -0.066689443171 -2.906721737e-3 -0.012198818024
330.4150000000000 0.0011943947622 -0.012776914194 0.9976664770577 -0.066994368045 0.9976664770577 -0.066994368045 -2.900586410e-3 -0.012502787000
330.4200000000000 0.0011416637349 -0.013069511545 0.9976429366667 -0.067290599462 0.9976429366667 -0.067290599462 -2.894807956e-3 -0.012798083809
330.4250000000000 0.0010902494212 -0.013353845673 0.9976198871531 -0.067578505398 0.9976198871531 -0.067578505398 -2.889363839e-3 -0.013085074785
330.4300000000000 0.0010401038277 -0.013630262179 0.9975973150050 -0.067858433359 0.9975973150050 -0.067858433359 -2.884233183e-3 -0.013364105926
330.4350000000000 9.9118121777e-4 -0.013899087661 0.9975752070748 -0.068130711783 0.9975752070748 -0.068130711783 -2.879396632e-3 -0.013635504281
330.4400000000000 9.4343798443e-4 -0.014160631006 0.9975535505800 -0.068395651333 0.9975535505800 -0.068395651333 -2.874836222e-3 -0.013899579231
330.4450000000000 8.9683253048e-4 -0.014415184572 0.9975323331009 -0.068653546079 0.9975323331009 -0.068653546079 -2.870535263e-3 -0.014156623667
330.4500000000000 8.5132515720e-4 -0.014663025280 0.9975115425785 -0.068904674592 0.9975115425785 -0.068904674592 -2.866478239e-3 -0.014406915070
330.4550000000000 8.0687795970e-4 -0.014904415621 0.9974911673090 -0.069149300953 0.9974911673090 -0.069149300953 -2.862650709e-3 -0.014650716517
330.4600000000000 7.6345472904e-4 -0.015139604576 0.9974711959388 -0.069387675682 0.9974711959388 -0.069387675682 -2.859039224e-3 -0.014888277596
330.4650000000000 7.2102086032e-4 -0.015368828485 0.9974516174578 -0.069620036595 0.9974516174578 -0.069620036595 -2.855631246e-3 -0.015119835267
330.4700000000000 6.7954326665e-4 -0.015592311828 0.9974324211920 -0.069846609603 0.9974324211920 -0.069846609603 -2.852415079e-3 -0.015345614643
330.4750000000000 6.3899029862e-4 -0.015810267969 0.9974135967963 -0.070067609444 0.9974135967963 -0.070067609444 -2.849379802e-3 -0.015565829728
330.4800000000000 5.9933166829e-4 -0.016022899826 0.9973951342460 -0.070283240366 0.9973951342460 -0.070283240366 -2.846515210e-3 -0.015780684088
330.4850000000000 5.6053837821e-4 -0.016230400512 0.9973770238289 -0.070493696761 0.9973770238289 -0.070493696761 -2.843811764e-3 -0.015990371482
330.4900000000000 5.2258265448e-4 -0.016432953912 0.9973592561362 -0.070699163750 0.9973592561362 -0.070699163750 -2.841260533e-3 -0.016195076446
330.4950000000000 4.8543788407e-4 -0.016630735232 0.9973418220545 -0.070899817732 0.9973418220545 -0.070899817732 -2.838853159e-3 -0.016394974833
330.5000000000000 4.4907774861e-4 -0.016823911872 0.9973247120849 -0.071095827263 0.9973247120849 -0.071095827263 -2.836582407e-3 -0.016590234929
