! Sonnet Data File
! From: em Version : 14.52
! From Project: waffle_inductor
! Data is De-embedded 
! Data File Written: 08/15/2018 22:10:21
!< ->  Created by dxfgeo, Sonnet Software Inc.
!< HDATE 08/15/2018 22:08:19
!< MDATE 08/15/2018 22:09:38
# MHZ S MA R 50.00000
100.000000 0.063047 86.268 0.997999 -3.741 0.997999 -3.741 0.063047 86.270
!< P1 F=100.0 Eeff=(undefined: mp) Z0=(undefined: mp) R=0.0 C=0.0 
!< P2 F=100.0 Eeff=(undefined: mp) Z0=(undefined: mp) R=0.0 C=0.0 
105.000000 0.066190 86.076 0.997787 -3.928 0.997787 -3.928 0.066190 86.078
110.000000 0.069332 85.885 0.997566 -4.115 0.997566 -4.115 0.069332 85.886
115.000000 0.072472 85.694 0.997335 -4.301 0.997335 -4.301 0.072471 85.696
120.000000 0.075609 85.504 0.997095 -4.488 0.997095 -4.488 0.075608 85.506
125.000000 0.078744 85.315 0.996845 -4.674 0.996845 -4.674 0.078743 85.316
130.000000 0.081877 85.125 0.996586 -4.860 0.996586 -4.860 0.081876 85.127
135.000000 0.085007 84.937 0.996317 -5.047 0.996317 -5.047 0.085006 84.938
140.000000 0.088135 84.748 0.996039 -5.233 0.996039 -5.233 0.088134 84.750
145.000000 0.091260 84.560 0.995751 -5.419 0.995751 -5.419 0.091259 84.562
150.000000 0.094383 84.373 0.995454 -5.605 0.995454 -5.605 0.094381 84.374
155.000000 0.097503 84.185 0.995148 -5.791 0.995148 -5.791 0.097501 84.187
160.000000 0.100619 83.998 0.994832 -5.977 0.994832 -5.977 0.100617 84.000
165.000000 0.103733 83.811 0.994507 -6.162 0.994507 -6.162 0.103731 83.813
170.000000 0.106844 83.625 0.994173 -6.348 0.994173 -6.348 0.106842 83.627
175.000000 0.109952 83.439 0.993829 -6.533 0.993829 -6.533 0.109950 83.441
180.000000 0.113057 83.253 0.993476 -6.719 0.993476 -6.719 0.113055 83.255
185.000000 0.116158 83.067 0.993114 -6.904 0.993114 -6.904 0.116156 83.069
190.000000 0.119257 82.882 0.992743 -7.089 0.992743 -7.089 0.119254 82.884
195.000000 0.122351 82.696 0.992363 -7.274 0.992363 -7.274 0.122349 82.699
200.000000 0.125443 82.511 0.991974 -7.459 0.991974 -7.459 0.125440 82.514
205.000000 0.128531 82.326 0.991575 -7.643 0.991575 -7.643 0.128528 82.329
210.000000 0.131615 82.142 0.991168 -7.828 0.991168 -7.828 0.131612 82.144
215.000000 0.134695 81.957 0.990751 -8.012 0.990751 -8.012 0.134692 81.960
220.000000 0.137772 81.773 0.990325 -8.196 0.990325 -8.196 0.137769 81.776
225.000000 0.140845 81.589 0.989891 -8.381 0.989891 -8.381 0.140842 81.592
230.000000 0.143914 81.406 0.989448 -8.565 0.989448 -8.565 0.143911 81.408
235.000000 0.146979 81.222 0.988995 -8.748 0.988995 -8.748 0.146976 81.225
240.000000 0.150040 81.039 0.988534 -8.932 0.988534 -8.932 0.150037 81.042
245.000000 0.153096 80.855 0.988064 -9.116 0.988064 -9.116 0.153093 80.858
250.000000 0.156149 80.673 0.987586 -9.299 0.987586 -9.299 0.156146 80.676
255.000000 0.159197 80.490 0.987098 -9.482 0.987098 -9.482 0.159194 80.493
260.000000 0.162241 80.307 0.986602 -9.665 0.986602 -9.665 0.162238 80.310
265.000000 0.165281 80.125 0.986097 -9.848 0.986097 -9.848 0.165278 80.128
270.000000 0.168316 79.943 0.985584 -10.03 0.985584 -10.03 0.168313 79.946
275.000000 0.171347 79.761 0.985062 -10.21 0.985062 -10.21 0.171344 79.764
280.000000 0.174373 79.579 0.984531 -10.40 0.984531 -10.40 0.174370 79.583
285.000000 0.177394 79.398 0.983992 -10.58 0.983992 -10.58 0.177391 79.401
290.000000 0.180410 79.216 0.983445 -10.76 0.983445 -10.76 0.180407 79.220
295.000000 0.183422 79.035 0.982889 -10.94 0.982889 -10.94 0.183419 79.039
300.000000 0.186429 78.855 0.982324 -11.12 0.982324 -11.12 0.186426 78.858
305.000000 0.189431 78.674 0.981752 -11.30 0.981752 -11.30 0.189428 78.677
310.000000 0.192427 78.493 0.981171 -11.49 0.981171 -11.49 0.192425 78.497
315.000000 0.195419 78.313 0.980581 -11.67 0.980581 -11.67 0.195417 78.317
320.000000 0.198406 78.133 0.979984 -11.85 0.979984 -11.85 0.198403 78.137
325.000000 0.201387 77.953 0.979378 -12.03 0.979378 -12.03 0.201385 77.957
330.000000 0.204363 77.774 0.978765 -12.21 0.978765 -12.21 0.204361 77.778
335.000000 0.207334 77.594 0.978143 -12.39 0.978143 -12.39 0.207332 77.598
340.000000 0.210300 77.415 0.977513 -12.57 0.977513 -12.57 0.210297 77.419
345.000000 0.213260 77.236 0.976875 -12.75 0.976875 -12.75 0.213258 77.240
350.000000 0.216214 77.058 0.976229 -12.93 0.976229 -12.93 0.216212 77.062
355.000000 0.219163 76.879 0.975576 -13.11 0.975576 -13.11 0.219161 76.883
360.000000 0.222106 76.701 0.974914 -13.29 0.974914 -13.29 0.222104 76.705
365.000000 0.225044 76.523 0.974245 -13.47 0.974245 -13.47 0.225042 76.527
370.000000 0.227976 76.345 0.973568 -13.65 0.973568 -13.65 0.227974 76.349
375.000000 0.230902 76.167 0.972883 -13.82 0.972883 -13.82 0.230900 76.172
380.000000 0.233822 75.990 0.972190 -14.00 0.972190 -14.00 0.233821 75.995
385.000000 0.236736 75.813 0.971490 -14.18 0.971490 -14.18 0.236735 75.818
390.000000 0.239644 75.636 0.970783 -14.36 0.970783 -14.36 0.239644 75.641
395.000000 0.242547 75.460 0.970067 -14.54 0.970067 -14.54 0.242546 75.464
400.000000 0.245443 75.283 0.969345 -14.71 0.969345 -14.71 0.245442 75.288
405.000000 0.248333 75.107 0.968615 -14.89 0.968615 -14.89 0.248333 75.112
410.000000 0.251217 74.931 0.967877 -15.07 0.967877 -15.07 0.251217 74.936
415.000000 0.254095 74.755 0.967133 -15.24 0.967133 -15.24 0.254095 74.760
420.000000 0.256966 74.580 0.966381 -15.42 0.966381 -15.42 0.256966 74.585
425.000000 0.259831 74.405 0.965621 -15.60 0.965621 -15.60 0.259832 74.410
!< P1 F=425.0 Eeff=(undefined: mp) Z0=(undefined: mp) R=0.0 C=0.0 
!< P2 F=425.0 Eeff=(undefined: mp) Z0=(undefined: mp) R=0.0 C=0.0 
430.000000 0.262673 74.225 0.964819 -15.77 0.964819 -15.77 0.262674 74.230
435.000000 0.265509 74.046 0.964010 -15.95 0.964010 -15.95 0.265509 74.051
440.000000 0.268337 73.868 0.963195 -16.12 0.963195 -16.12 0.268338 73.873
445.000000 0.271160 73.689 0.962372 -16.30 0.962372 -16.30 0.271161 73.695
450.000000 0.273975 73.512 0.961542 -16.47 0.961542 -16.47 0.273976 73.517
455.000000 0.276784 73.334 0.960706 -16.64 0.960706 -16.64 0.276786 73.339
460.000000 0.279586 73.157 0.959863 -16.82 0.959863 -16.82 0.279588 73.162
465.000000 0.282382 72.980 0.959014 -16.99 0.959014 -16.99 0.282384 72.985
470.000000 0.285171 72.804 0.958157 -17.16 0.958157 -17.16 0.285173 72.809
475.000000 0.287952 72.627 0.957295 -17.34 0.957295 -17.34 0.287955 72.633
480.000000 0.290727 72.452 0.956426 -17.51 0.956426 -17.51 0.290730 72.457
485.000000 0.293495 72.276 0.955550 -17.68 0.955550 -17.68 0.293498 72.282
490.000000 0.296256 72.101 0.954668 -17.85 0.954668 -17.85 0.296259 72.107
495.000000 0.299011 71.927 0.953780 -18.03 0.953780 -18.03 0.299014 71.932
500.000000 0.301758 71.753 0.952886 -18.20 0.952886 -18.20 0.301761 71.758
505.000000 0.304498 71.579 0.951985 -18.37 0.951985 -18.37 0.304501 71.584
510.000000 0.307230 71.405 0.951078 -18.54 0.951078 -18.54 0.307234 71.411
515.000000 0.309956 71.232 0.950165 -18.71 0.950165 -18.71 0.309960 71.238
520.000000 0.312675 71.059 0.949246 -18.88 0.949246 -18.88 0.312679 71.065
525.000000 0.315386 70.887 0.948321 -19.05 0.948321 -19.05 0.315391 70.892
530.000000 0.318090 70.714 0.947391 -19.22 0.947391 -19.22 0.318095 70.720
535.000000 0.320787 70.543 0.946454 -19.39 0.946454 -19.39 0.320792 70.548
540.000000 0.323477 70.371 0.945512 -19.56 0.945512 -19.56 0.323482 70.377
545.000000 0.326159 70.200 0.944563 -19.73 0.944563 -19.73 0.326165 70.206
550.000000 0.328834 70.029 0.943609 -19.90 0.943609 -19.90 0.328840 70.035
555.000000 0.331501 69.859 0.942650 -20.06 0.942650 -20.06 0.331507 69.865
560.000000 0.334161 69.689 0.941685 -20.23 0.941685 -20.23 0.334168 69.695
565.000000 0.336813 69.519 0.940714 -20.40 0.940714 -20.40 0.336820 69.525
570.000000 0.339458 69.350 0.939738 -20.57 0.939738 -20.57 0.339466 69.356
575.000000 0.342096 69.181 0.938756 -20.73 0.938756 -20.73 0.342104 69.187
580.000000 0.344726 69.012 0.937769 -20.90 0.937769 -20.90 0.344734 69.019
585.000000 0.347348 68.844 0.936777 -21.07 0.936777 -21.07 0.347357 68.850
590.000000 0.349963 68.676 0.935779 -21.23 0.935779 -21.23 0.349972 68.682
595.000000 0.352570 68.509 0.934777 -21.40 0.934777 -21.40 0.352579 68.515
600.000000 0.355170 68.341 0.933769 -21.57 0.933769 -21.57 0.355179 68.348
605.000000 0.357762 68.174 0.932756 -21.73 0.932756 -21.73 0.357771 68.181
610.000000 0.360346 68.008 0.931738 -21.90 0.931738 -21.90 0.360356 68.014
615.000000 0.362923 67.842 0.930715 -22.06 0.930715 -22.06 0.362932 67.848
620.000000 0.365491 67.676 0.929687 -22.23 0.929687 -22.23 0.365502 67.682
625.000000 0.368052 67.510 0.928654 -22.39 0.928654 -22.39 0.368063 67.517
630.000000 0.370606 67.345 0.927617 -22.55 0.927617 -22.55 0.370616 67.352
635.000000 0.373151 67.180 0.926574 -22.72 0.926574 -22.72 0.373162 67.187
640.000000 0.375689 67.016 0.925527 -22.88 0.925527 -22.88 0.375700 67.023
645.000000 0.378218 66.852 0.924475 -23.04 0.924475 -23.04 0.378230 66.859
650.000000 0.380740 66.688 0.923419 -23.21 0.923419 -23.21 0.380752 66.695
655.000000 0.383254 66.525 0.922358 -23.37 0.922358 -23.37 0.383267 66.532
660.000000 0.385761 66.362 0.921293 -23.53 0.921293 -23.53 0.385773 66.369
665.000000 0.388259 66.199 0.920223 -23.69 0.920223 -23.69 0.388272 66.206
670.000000 0.390749 66.037 0.919149 -23.86 0.919149 -23.86 0.390763 66.044
675.000000 0.393232 65.875 0.918071 -24.02 0.918071 -24.02 0.393245 65.882
680.000000 0.395706 65.713 0.916988 -24.18 0.916988 -24.18 0.395720 65.720
685.000000 0.398173 65.552 0.915901 -24.34 0.915901 -24.34 0.398187 65.559
690.000000 0.400631 65.391 0.914810 -24.50 0.914810 -24.50 0.400646 65.398
695.000000 0.403082 65.230 0.913715 -24.66 0.913715 -24.66 0.403097 65.237
700.000000 0.405525 65.070 0.912616 -24.82 0.912616 -24.82 0.405540 65.077
705.000000 0.407959 64.910 0.911512 -24.98 0.911512 -24.98 0.407975 64.917
710.000000 0.410386 64.750 0.910405 -25.14 0.910405 -25.14 0.410402 64.758
715.000000 0.412804 64.591 0.909294 -25.29 0.909294 -25.29 0.412820 64.599
720.000000 0.415215 64.432 0.908179 -25.45 0.908179 -25.45 0.415231 64.440
725.000000 0.417617 64.274 0.907060 -25.61 0.907060 -25.61 0.417634 64.281
730.000000 0.420012 64.116 0.905938 -25.77 0.905938 -25.77 0.420029 64.123
735.000000 0.422398 63.958 0.904812 -25.93 0.904812 -25.93 0.422415 63.965
740.000000 0.424777 63.800 0.903682 -26.08 0.903682 -26.08 0.424794 63.808
745.000000 0.427147 63.643 0.902549 -26.24 0.902549 -26.24 0.427165 63.651
750.000000 0.429509 63.487 0.901412 -26.40 0.901412 -26.40 0.429527 63.494
755.000000 0.431863 63.330 0.900272 -26.55 0.900272 -26.55 0.431881 63.338
760.000000 0.434209 63.174 0.899128 -26.71 0.899128 -26.71 0.434228 63.182
765.000000 0.436547 63.018 0.897981 -26.86 0.897981 -26.86 0.436566 63.026
770.000000 0.438877 62.863 0.896831 -27.02 0.896831 -27.02 0.438896 62.871
775.000000 0.441198 62.708 0.895677 -27.17 0.895677 -27.17 0.441218 62.716
780.000000 0.443512 62.553 0.894520 -27.33 0.894520 -27.33 0.443532 62.561
785.000000 0.445817 62.399 0.893360 -27.48 0.893360 -27.48 0.445837 62.407
790.000000 0.448114 62.245 0.892197 -27.63 0.892197 -27.63 0.448135 62.253
795.000000 0.450404 62.091 0.891030 -27.79 0.891030 -27.79 0.450424 62.100
800.000000 0.452685 61.938 0.889861 -27.94 0.889861 -27.94 0.452706 61.946
805.000000 0.454958 61.785 0.888689 -28.09 0.888689 -28.09 0.454979 61.793
810.000000 0.457222 61.633 0.887514 -28.25 0.887514 -28.25 0.457244 61.641
815.000000 0.459479 61.481 0.886336 -28.40 0.886336 -28.40 0.459501 61.489
820.000000 0.461728 61.329 0.885155 -28.55 0.885155 -28.55 0.461750 61.337
825.000000 0.463968 61.177 0.883971 -28.70 0.883971 -28.70 0.463991 61.185
830.000000 0.466201 61.026 0.882785 -28.85 0.882785 -28.85 0.466223 61.034
835.000000 0.468425 60.875 0.881596 -29.00 0.881596 -29.00 0.468448 60.884
840.000000 0.470641 60.725 0.880404 -29.15 0.880404 -29.15 0.470664 60.733
845.000000 0.472849 60.575 0.879210 -29.30 0.879210 -29.30 0.472873 60.583
850.000000 0.475049 60.425 0.878013 -29.45 0.878013 -29.45 0.475073 60.433
855.000000 0.477241 60.276 0.876814 -29.60 0.876814 -29.60 0.477265 60.284
860.000000 0.479424 60.126 0.875612 -29.75 0.875612 -29.75 0.479449 60.135
865.000000 0.481600 59.978 0.874408 -29.90 0.874408 -29.90 0.481625 59.986
870.000000 0.483768 59.829 0.873202 -30.05 0.873202 -30.05 0.483793 59.838
875.000000 0.485927 59.681 0.871993 -30.20 0.871993 -30.20 0.485952 59.690
880.000000 0.488078 59.534 0.870782 -30.35 0.870782 -30.35 0.488104 59.542
885.000000 0.490222 59.386 0.869569 -30.49 0.869569 -30.49 0.490247 59.395
890.000000 0.492357 59.240 0.868354 -30.64 0.868354 -30.64 0.492383 59.248
895.000000 0.494484 59.093 0.867136 -30.79 0.867136 -30.79 0.494510 59.102
900.000000 0.496603 58.947 0.865917 -30.93 0.865917 -30.93 0.496630 58.955
905.000000 0.498714 58.801 0.864695 -31.08 0.864695 -31.08 0.498741 58.810
910.000000 0.500817 58.655 0.863472 -31.23 0.863472 -31.23 0.500844 58.664
915.000000 0.502912 58.510 0.862246 -31.37 0.862246 -31.37 0.502940 58.519
920.000000 0.504999 58.365 0.861019 -31.52 0.861019 -31.52 0.505027 58.374
925.000000 0.507078 58.221 0.859790 -31.66 0.859790 -31.66 0.507106 58.230
930.000000 0.509149 58.076 0.858559 -31.80 0.858559 -31.80 0.509177 58.085
935.000000 0.511212 57.933 0.857326 -31.95 0.857326 -31.95 0.511240 57.942
940.000000 0.513267 57.789 0.856091 -32.09 0.856091 -32.09 0.513296 57.798
945.000000 0.515314 57.646 0.854855 -32.24 0.854855 -32.24 0.515343 57.655
950.000000 0.517353 57.503 0.853617 -32.38 0.853617 -32.38 0.517382 57.512
955.000000 0.519384 57.361 0.852378 -32.52 0.852378 -32.52 0.519413 57.370
960.000000 0.521407 57.219 0.851137 -32.66 0.851137 -32.66 0.521437 57.228
965.000000 0.523422 57.077 0.849894 -32.81 0.849894 -32.81 0.523452 57.086
970.000000 0.525430 56.936 0.848650 -32.95 0.848650 -32.95 0.525460 56.945
975.000000 0.527429 56.794 0.847405 -33.09 0.847405 -33.09 0.527459 56.804
980.000000 0.529421 56.654 0.846158 -33.23 0.846158 -33.23 0.529451 56.663
985.000000 0.531404 56.513 0.844910 -33.37 0.844910 -33.37 0.531435 56.523
990.000000 0.533380 56.373 0.843661 -33.51 0.843661 -33.51 0.533411 56.383
995.000000 0.535348 56.234 0.842410 -33.65 0.842410 -33.65 0.535379 56.243
1000.00000 0.537308 56.094 0.841158 -33.79 0.841158 -33.79 0.537339 56.104
1005.00000 0.539260 55.955 0.839905 -33.93 0.839905 -33.93 0.539292 55.965
1010.00000 0.541205 55.817 0.838650 -34.07 0.838650 -34.07 0.541236 55.826
1015.00000 0.543141 55.678 0.837395 -34.21 0.837395 -34.21 0.543173 55.688
1020.00000 0.545070 55.541 0.836138 -34.35 0.836138 -34.35 0.545102 55.550
1025.00000 0.546991 55.403 0.834881 -34.49 0.834881 -34.49 0.547024 55.413
1030.00000 0.548905 55.266 0.833622 -34.62 0.833622 -34.62 0.548937 55.275
1035.00000 0.550810 55.129 0.832362 -34.76 0.832362 -34.76 0.550843 55.139
1040.00000 0.552708 54.992 0.831102 -34.90 0.831102 -34.90 0.552741 55.002
1045.00000 0.554598 54.856 0.829840 -35.03 0.829840 -35.03 0.554632 54.866
1050.00000 0.556481 54.720 0.828578 -35.17 0.828578 -35.17 0.556514 54.730
1055.00000 0.558356 54.584 0.827315 -35.31 0.827315 -35.31 0.558389 54.594
1060.00000 0.560223 54.449 0.826051 -35.44 0.826051 -35.44 0.560257 54.459
1065.00000 0.562082 54.314 0.824786 -35.58 0.824786 -35.58 0.562116 54.324
1070.00000 0.563934 54.180 0.823521 -35.71 0.823521 -35.71 0.563968 54.190
1075.00000 0.565779 54.045 0.822255 -35.85 0.822255 -35.85 0.565813 54.056
1080.00000 0.567615 53.912 0.820988 -35.98 0.820988 -35.98 0.567650 53.922
1085.00000 0.569445 53.778 0.819721 -36.12 0.819721 -36.12 0.569479 53.788
1090.00000 0.571266 53.645 0.818453 -36.25 0.818453 -36.25 0.571301 53.655
1095.00000 0.573080 53.512 0.817184 -36.38 0.817184 -36.38 0.573115 53.522
1100.00000 0.574887 53.379 0.815915 -36.52 0.815915 -36.52 0.574922 53.390
1105.00000 0.576686 53.247 0.814645 -36.65 0.814645 -36.65 0.576721 53.258
1110.00000 0.578478 53.115 0.813375 -36.78 0.813375 -36.78 0.578513 53.126
1115.00000 0.580262 52.984 0.812105 -36.91 0.812105 -36.91 0.580297 52.994
1120.00000 0.582039 52.853 0.810834 -37.04 0.810834 -37.04 0.582074 52.863
1125.00000 0.583808 52.722 0.809563 -37.18 0.809563 -37.18 0.583844 52.732
1130.00000 0.585570 52.591 0.808292 -37.31 0.808292 -37.31 0.585606 52.602
1135.00000 0.587324 52.461 0.807020 -37.44 0.807020 -37.44 0.587360 52.472
1140.00000 0.589072 52.331 0.805748 -37.57 0.805748 -37.57 0.589108 52.342
1145.00000 0.590812 52.202 0.804475 -37.70 0.804475 -37.70 0.590848 52.213
1150.00000 0.592544 52.072 0.803203 -37.83 0.803203 -37.83 0.592580 52.083
1155.00000 0.594269 51.944 0.801930 -37.96 0.801930 -37.96 0.594306 51.955
1160.00000 0.595987 51.815 0.800657 -38.09 0.800657 -38.09 0.596024 51.826
1165.00000 0.597698 51.687 0.799384 -38.22 0.799384 -38.22 0.597735 51.698
1170.00000 0.599401 51.559 0.798111 -38.34 0.798111 -38.34 0.599438 51.570
1175.00000 0.601098 51.431 0.796838 -38.47 0.796838 -38.47 0.601135 51.443
1180.00000 0.602787 51.304 0.795565 -38.60 0.795565 -38.60 0.602824 51.315
1185.00000 0.604469 51.177 0.794292 -38.73 0.794292 -38.73 0.604506 51.188
1190.00000 0.606143 51.051 0.793019 -38.86 0.793019 -38.86 0.606181 51.062
1195.00000 0.607811 50.924 0.791746 -38.98 0.791746 -38.98 0.607848 50.936
1200.00000 0.609472 50.798 0.790473 -39.11 0.790473 -39.11 0.609509 50.810
1205.00000 0.611125 50.673 0.789200 -39.23 0.789200 -39.23 0.611162 50.684
1210.00000 0.612771 50.548 0.787927 -39.36 0.787927 -39.36 0.612809 50.559
1215.00000 0.614411 50.423 0.786654 -39.49 0.786654 -39.49 0.614448 50.434
1220.00000 0.616043 50.298 0.785382 -39.61 0.785382 -39.61 0.616080 50.310
1225.00000 0.617668 50.174 0.784110 -39.74 0.784110 -39.74 0.617706 50.185
1230.00000 0.619287 50.050 0.782838 -39.86 0.782838 -39.86 0.619324 50.061
1235.00000 0.620898 49.926 0.781566 -39.99 0.781566 -39.99 0.620936 49.938
1240.00000 0.622502 49.803 0.780295 -40.11 0.780295 -40.11 0.622540 49.814
1245.00000 0.624100 49.680 0.779024 -40.23 0.779024 -40.23 0.624138 49.691
1250.00000 0.625690 49.557 0.777753 -40.36 0.777753 -40.36 0.625728 49.569
1255.00000 0.627274 49.435 0.776482 -40.48 0.776482 -40.48 0.627312 49.446
1260.00000 0.628851 49.312 0.775212 -40.60 0.775212 -40.60 0.628889 49.324
1265.00000 0.630421 49.191 0.773943 -40.72 0.773943 -40.72 0.630459 49.203
1270.00000 0.631985 49.069 0.772673 -40.85 0.772673 -40.85 0.632023 49.081
1275.00000 0.633541 48.948 0.771405 -40.97 0.771405 -40.97 0.633579 48.960
1280.00000 0.635091 48.827 0.770136 -41.09 0.770136 -41.09 0.635129 48.839
1285.00000 0.636634 48.707 0.768869 -41.21 0.768869 -41.21 0.636672 48.719
1290.00000 0.638170 48.587 0.767601 -41.33 0.767601 -41.33 0.638208 48.599
1295.00000 0.639700 48.467 0.766335 -41.45 0.766335 -41.45 0.639738 48.479
1300.00000 0.641223 48.347 0.765068 -41.57 0.765068 -41.57 0.641261 48.359
1305.00000 0.642739 48.228 0.763803 -41.69 0.763803 -41.69 0.642777 48.240
1310.00000 0.644249 48.109 0.762538 -41.81 0.762538 -41.81 0.644287 48.121
1315.00000 0.645752 47.990 0.761274 -41.93 0.761274 -41.93 0.645790 48.003
1320.00000 0.647249 47.872 0.760010 -42.05 0.760010 -42.05 0.647287 47.884
1325.00000 0.648739 47.754 0.758747 -42.17 0.758747 -42.17 0.648777 47.766
1330.00000 0.650222 47.636 0.757485 -42.29 0.757485 -42.29 0.650260 47.649
1335.00000 0.651699 47.519 0.756223 -42.41 0.756223 -42.41 0.651737 47.531
1340.00000 0.653170 47.402 0.754962 -42.52 0.754962 -42.52 0.653208 47.414
1345.00000 0.654634 47.285 0.753702 -42.64 0.753702 -42.64 0.654672 47.298
1350.00000 0.656092 47.168 0.752443 -42.76 0.752443 -42.76 0.656130 47.181
1355.00000 0.657543 47.052 0.751184 -42.87 0.751184 -42.87 0.657581 47.065
1360.00000 0.658988 46.936 0.749926 -42.99 0.749926 -42.99 0.659026 46.949
1365.00000 0.660427 46.821 0.748669 -43.11 0.748669 -43.11 0.660464 46.834
1370.00000 0.661859 46.705 0.747413 -43.22 0.747413 -43.22 0.661896 46.719
1375.00000 0.663285 46.590 0.746158 -43.34 0.746158 -43.34 0.663322 46.604
1380.00000 0.664704 46.476 0.744904 -43.45 0.744904 -43.45 0.664742 46.489
1385.00000 0.666118 46.361 0.743650 -43.57 0.743650 -43.57 0.666155 46.375
1390.00000 0.667525 46.247 0.742398 -43.68 0.742398 -43.68 0.667562 46.261
1395.00000 0.668926 46.134 0.741146 -43.80 0.741146 -43.80 0.668963 46.147
1400.00000 0.670321 46.020 0.739896 -43.91 0.739896 -43.91 0.670358 46.033
1405.00000 0.671709 45.907 0.738646 -44.03 0.738646 -44.03 0.671746 45.920
1410.00000 0.673092 45.794 0.737397 -44.14 0.737397 -44.14 0.673129 45.807
1415.00000 0.674468 45.681 0.736150 -44.25 0.736150 -44.25 0.674505 45.695
1420.00000 0.675838 45.569 0.734903 -44.37 0.734903 -44.37 0.675875 45.583
1425.00000 0.677202 45.457 0.733657 -44.48 0.733657 -44.48 0.677239 45.471
1430.00000 0.678561 45.345 0.732413 -44.59 0.732413 -44.59 0.678597 45.359
1435.00000 0.679913 45.234 0.731169 -44.70 0.731169 -44.70 0.679949 45.248
1440.00000 0.681259 45.123 0.729927 -44.81 0.729927 -44.81 0.681295 45.137
1445.00000 0.682599 45.012 0.728686 -44.93 0.728686 -44.93 0.682635 45.026
1450.00000 0.683933 44.901 0.727445 -45.04 0.727445 -45.04 0.683969 44.915
1455.00000 0.685261 44.791 0.726206 -45.15 0.726206 -45.15 0.685297 44.805
1460.00000 0.686584 44.681 0.724968 -45.26 0.724968 -45.26 0.686620 44.695
1465.00000 0.687900 44.571 0.723732 -45.37 0.723732 -45.37 0.687936 44.586
1470.00000 0.689211 44.462 0.722496 -45.48 0.722496 -45.48 0.689246 44.476
1475.00000 0.690516 44.353 0.721262 -45.59 0.721262 -45.59 0.690551 44.367
1480.00000 0.691815 44.244 0.720028 -45.70 0.720028 -45.70 0.691850 44.258
1485.00000 0.693108 44.136 0.718796 -45.81 0.718796 -45.81 0.693143 44.150
1490.00000 0.694395 44.027 0.717566 -45.92 0.717566 -45.92 0.694430 44.042
1495.00000 0.695677 43.919 0.716336 -46.02 0.716336 -46.02 0.695712 43.934
1500.00000 0.696953 43.812 0.715108 -46.13 0.715108 -46.13 0.696988 43.826
1505.00000 0.698223 43.704 0.713881 -46.24 0.713881 -46.24 0.698258 43.719
1510.00000 0.699488 43.597 0.712655 -46.35 0.712655 -46.35 0.699522 43.612
1515.00000 0.700747 43.490 0.711430 -46.46 0.711430 -46.46 0.700781 43.505
1520.00000 0.702000 43.384 0.710207 -46.56 0.710207 -46.56 0.702034 43.398
1525.00000 0.703248 43.277 0.708985 -46.67 0.708985 -46.67 0.703282 43.292
1530.00000 0.704490 43.171 0.707765 -46.78 0.707765 -46.78 0.704524 43.186
1535.00000 0.705727 43.065 0.706546 -46.88 0.706546 -46.88 0.705760 43.081
1540.00000 0.706958 42.960 0.705328 -46.99 0.705328 -46.99 0.706991 42.975
1545.00000 0.708184 42.855 0.704111 -47.10 0.704111 -47.10 0.708217 42.870
1550.00000 0.709404 42.750 0.702896 -47.20 0.702896 -47.20 0.709437 42.765
1555.00000 0.710619 42.645 0.701682 -47.31 0.701682 -47.31 0.710651 42.661
1560.00000 0.711828 42.541 0.700470 -47.41 0.700470 -47.41 0.711861 42.556
1565.00000 0.713032 42.437 0.699259 -47.52 0.699259 -47.52 0.713064 42.452
1570.00000 0.714230 42.333 0.698050 -47.62 0.698050 -47.62 0.714262 42.348
1575.00000 0.715424 42.229 0.696842 -47.72 0.696842 -47.72 0.715455 42.245
1580.00000 0.716611 42.126 0.695635 -47.83 0.695635 -47.83 0.716643 42.142
1585.00000 0.717794 42.023 0.694430 -47.93 0.694430 -47.93 0.717825 42.039
1590.00000 0.718971 41.920 0.693226 -48.03 0.693226 -48.03 0.719002 41.936
1595.00000 0.720143 41.818 0.692024 -48.14 0.692024 -48.14 0.720174 41.834
1600.00000 0.721310 41.716 0.690823 -48.24 0.690823 -48.24 0.721340 41.732
1605.00000 0.722471 41.614 0.689623 -48.34 0.689623 -48.34 0.722502 41.630
1610.00000 0.723627 41.512 0.688426 -48.45 0.688426 -48.45 0.723658 41.528
1615.00000 0.724778 41.410 0.687229 -48.55 0.687229 -48.55 0.724808 41.427
1620.00000 0.725924 41.309 0.686034 -48.65 0.686034 -48.65 0.725954 41.326
1625.00000 0.727065 41.208 0.684841 -48.75 0.684841 -48.75 0.727095 41.225
1630.00000 0.728201 41.108 0.683649 -48.85 0.683649 -48.85 0.728230 41.124
1635.00000 0.729332 41.007 0.682459 -48.95 0.682459 -48.95 0.729360 41.024
1640.00000 0.730457 40.907 0.681270 -49.05 0.681270 -49.05 0.730486 40.924
1645.00000 0.731578 40.807 0.680083 -49.15 0.680083 -49.15 0.731606 40.824
1650.00000 0.732693 40.708 0.678898 -49.25 0.678898 -49.25 0.732721 40.724
1655.00000 0.733804 40.608 0.677714 -49.35 0.677714 -49.35 0.733831 40.625
1660.00000 0.734909 40.509 0.676531 -49.45 0.676531 -49.45 0.734937 40.526
1665.00000 0.736010 40.410 0.675350 -49.55 0.675350 -49.55 0.736037 40.427
1670.00000 0.737105 40.312 0.674171 -49.65 0.674171 -49.65 0.737132 40.329
1675.00000 0.738196 40.214 0.672993 -49.75 0.672993 -49.75 0.738223 40.231
1680.00000 0.739282 40.115 0.671817 -49.85 0.671817 -49.85 0.739308 40.133
1685.00000 0.740363 40.018 0.670643 -49.95 0.670643 -49.95 0.740389 40.035
1690.00000 0.741439 39.920 0.669470 -50.05 0.669470 -50.05 0.741465 39.937
1695.00000 0.742510 39.823 0.668299 -50.14 0.668299 -50.14 0.742536 39.840
1700.00000 0.743577 39.726 0.667129 -50.24 0.667129 -50.24 0.743602 39.743
1705.00000 0.744639 39.629 0.665961 -50.34 0.665961 -50.34 0.744663 39.646
1710.00000 0.745696 39.532 0.664795 -50.43 0.664795 -50.43 0.745720 39.550
1715.00000 0.746748 39.436 0.663630 -50.53 0.663630 -50.53 0.746772 39.454
1720.00000 0.747795 39.340 0.662467 -50.63 0.662467 -50.63 0.747819 39.358
1725.00000 0.748838 39.244 0.661306 -50.72 0.661306 -50.72 0.748862 39.262
1730.00000 0.749876 39.148 0.660146 -50.82 0.660146 -50.82 0.749900 39.167
1735.00000 0.750910 39.053 0.658988 -50.92 0.658988 -50.92 0.750933 39.071
1740.00000 0.751939 38.958 0.657832 -51.01 0.657832 -51.01 0.751962 38.976
1745.00000 0.752963 38.863 0.656677 -51.11 0.656677 -51.11 0.752986 38.881
1750.00000 0.753983 38.769 0.655524 -51.20 0.655524 -51.20 0.754005 38.787
1755.00000 0.754998 38.674 0.654373 -51.30 0.654373 -51.30 0.755020 38.693
1760.00000 0.756009 38.580 0.653224 -51.39 0.653224 -51.39 0.756030 38.599
1765.00000 0.757015 38.486 0.652076 -51.49 0.652076 -51.49 0.757036 38.505
1770.00000 0.758016 38.393 0.650930 -51.58 0.650930 -51.58 0.758037 38.411
1775.00000 0.759014 38.299 0.649785 -51.67 0.649785 -51.67 0.759034 38.318
1780.00000 0.760006 38.206 0.648643 -51.77 0.648643 -51.77 0.760026 38.225
1785.00000 0.760995 38.113 0.647502 -51.86 0.647502 -51.86 0.761014 38.132
1790.00000 0.761978 38.020 0.646362 -51.95 0.646362 -51.95 0.761997 38.039
1795.00000 0.762958 37.928 0.645225 -52.05 0.645225 -52.05 0.762977 37.947
1800.00000 0.763933 37.836 0.644089 -52.14 0.644089 -52.14 0.763951 37.855
1805.00000 0.764904 37.744 0.642955 -52.23 0.642955 -52.23 0.764922 37.763
1810.00000 0.765870 37.652 0.641823 -52.32 0.641823 -52.32 0.765888 37.671
1815.00000 0.766832 37.560 0.640692 -52.41 0.640692 -52.41 0.766849 37.580
1820.00000 0.767790 37.469 0.639564 -52.51 0.639564 -52.51 0.767807 37.489
1825.00000 0.768743 37.378 0.638437 -52.60 0.638437 -52.60 0.768760 37.398
1830.00000 0.769693 37.287 0.637311 -52.69 0.637311 -52.69 0.769709 37.307
1835.00000 0.770638 37.197 0.636188 -52.78 0.636188 -52.78 0.770653 37.217
1840.00000 0.771578 37.106 0.635066 -52.87 0.635066 -52.87 0.771594 37.126
1845.00000 0.772515 37.016 0.633946 -52.96 0.633946 -52.96 0.772530 37.036
1850.00000 0.773447 36.926 0.632828 -53.05 0.632828 -53.05 0.773462 36.947
1855.00000 0.774376 36.837 0.631712 -53.14 0.631712 -53.14 0.774390 36.857
1860.00000 0.775300 36.747 0.630597 -53.23 0.630597 -53.23 0.775314 36.768
1865.00000 0.776220 36.658 0.629484 -53.32 0.629484 -53.32 0.776233 36.678
1870.00000 0.777136 36.569 0.628373 -53.41 0.628373 -53.41 0.777149 36.590
1875.00000 0.778048 36.480 0.627264 -53.50 0.627264 -53.50 0.778060 36.501
1880.00000 0.778955 36.392 0.626157 -53.59 0.626157 -53.59 0.778967 36.412
1885.00000 0.779859 36.303 0.625051 -53.68 0.625051 -53.68 0.779871 36.324
1890.00000 0.780759 36.215 0.623947 -53.76 0.623947 -53.76 0.780770 36.236
1895.00000 0.781655 36.127 0.622845 -53.85 0.622845 -53.85 0.781666 36.148
1900.00000 0.782546 36.040 0.621745 -53.94 0.621745 -53.94 0.782557 36.061
1905.00000 0.783434 35.952 0.620647 -54.03 0.620647 -54.03 0.783444 35.973
1910.00000 0.784318 35.865 0.619550 -54.11 0.619550 -54.11 0.784328 35.886
1915.00000 0.785198 35.778 0.618455 -54.20 0.618455 -54.20 0.785207 35.799
1920.00000 0.786074 35.691 0.617362 -54.29 0.617362 -54.29 0.786083 35.713
1925.00000 0.786946 35.604 0.616271 -54.38 0.616271 -54.38 0.786955 35.626
1930.00000 0.787815 35.518 0.615182 -54.46 0.615182 -54.46 0.787822 35.540
1935.00000 0.788679 35.432 0.614094 -54.55 0.614094 -54.55 0.788686 35.454
1940.00000 0.789540 35.346 0.613008 -54.63 0.613008 -54.63 0.789547 35.368
1945.00000 0.790397 35.260 0.611924 -54.72 0.611924 -54.72 0.790403 35.282
1950.00000 0.791250 35.175 0.610842 -54.81 0.610842 -54.81 0.791256 35.197
1955.00000 0.792099 35.089 0.609762 -54.89 0.609762 -54.89 0.792104 35.112
1960.00000 0.792944 35.004 0.608683 -54.98 0.608683 -54.98 0.792949 35.027
1965.00000 0.793786 34.920 0.607607 -55.06 0.607607 -55.06 0.793791 34.942
1970.00000 0.794624 34.835 0.606532 -55.15 0.606532 -55.15 0.794628 34.858
1975.00000 0.795458 34.750 0.605459 -55.23 0.605459 -55.23 0.795462 34.773
1980.00000 0.796289 34.666 0.604388 -55.31 0.604388 -55.31 0.796292 34.689
1985.00000 0.797116 34.582 0.603319 -55.40 0.603319 -55.40 0.797119 34.605
1990.00000 0.797939 34.498 0.602251 -55.48 0.602251 -55.48 0.797942 34.521
1995.00000 0.798759 34.415 0.601185 -55.57 0.601185 -55.57 0.798761 34.438
2000.00000 0.799575 34.331 0.600122 -55.65 0.600122 -55.65 0.799577 34.355
!< P1 F=2000.0 Eeff=(undefined: mp) Z0=(undefined: mp) R=0.0 C=0.0 
!< P2 F=2000.0 Eeff=(undefined: mp) Z0=(undefined: mp) R=0.0 C=0.0 
